 Q-Chem 6.2 (devel), Q-Chem, Inc., Pleasanton, CA (2024)
 Q-Chem 6.2.1 for Intel X86 EM64T Linux

User input:
--------------------------------------------------------------
$molecule
0 1
  C   -2.6961826    1.1433381    0.1184257
  C   -3.4590707    0.6920778   -1.1014268
  C   -3.4590707   -0.6920778   -1.1014268
  H   -3.8362765    1.3399853   -1.9003851
  C   -2.6961826   -1.1433381    0.1184257
  H   -3.8362765   -1.3399853   -1.9003851
  C   -1.2081430   -0.7915026   -0.3440731
  C   -3.0763550    0.0000000    1.0955812
  H   -2.8388139   -2.1856000    0.4362700
  C   -1.2081430    0.7915026   -0.3440731
  C    0.0000000   -1.1459453    0.5839444
  H   -1.0440884   -1.2307879   -1.3412739
  C    0.0000000    1.1459453    0.5839444
  H   -1.0440884    1.2307879   -1.3412739
  H   -2.8388139    2.1856000    0.4362700
  C    1.2081430    0.7915026   -0.3440731
  C    1.2081430   -0.7915026   -0.3440731
  C    0.0000000    0.0000000    1.6196214
  C    2.6961826    1.1433381    0.1184257
  C    2.6961826   -1.1433381    0.1184257
  C    3.4590707   -0.6920778   -1.1014268
  C    3.4590707    0.6920778   -1.1014268
  C    3.0763550    0.0000000    1.0955812
  H   -2.5547628    0.0000000    2.0564068
  H   -4.1601901    0.0000000    1.2958578
  H    0.0000000   -2.1790941    0.9649555
  H    0.0000000    2.1790941    0.9649555
  H    1.0440884    1.2307879   -1.3412739
  H    1.0440884   -1.2307879   -1.3412739
  H    0.8696055    0.0000000    2.2824280
  H   -0.8696055    0.0000000    2.2824280
  H    2.8388139    2.1856000    0.4362700
  H    2.8388139   -2.1856000    0.4362700
  H    3.8362765   -1.3399853   -1.9003851
  H    3.8362765    1.3399853   -1.9003851
  H    4.1601901    0.0000000    1.2958578
  H    2.5547628    0.0000000    2.0564068
$end

$rem
   BASIS = cc-pvdz
   GUI  =  2
   MEM_TOTAL  =  100000
   METHOD  =  EOM-CCSD
   SCF_CONVERGENCE  =  8
   IP_STATES = [4,3,4,4]
   CC_TRANS_PROP = 2
   CALC_SOC = 1
$end
--------------------------------------------------------------

             Standard Nuclear Orientation (Angstroms)
    I     Atom           X                Y                Z
 ----------------------------------------------------------------
    1      C      -2.6961826000     1.1433381000     0.1184257410
    2      C      -3.4590707000     0.6920778000    -1.1014267590
    3      C      -3.4590707000    -0.6920778000    -1.1014267590
    4      H      -3.8362765000     1.3399853000    -1.9003850590
    5      C      -2.6961826000    -1.1433381000     0.1184257410
    6      H      -3.8362765000    -1.3399853000    -1.9003850590
    7      C      -1.2081430000    -0.7915026000    -0.3440730590
    8      C      -3.0763550000     0.0000000000     1.0955812410
    9      H      -2.8388139000    -2.1856000000     0.4362700410
   10      C      -1.2081430000     0.7915026000    -0.3440730590
   11      C       0.0000000000    -1.1459453000     0.5839444410
   12      H      -1.0440884000    -1.2307879000    -1.3412738590
   13      C       0.0000000000     1.1459453000     0.5839444410
   14      H      -1.0440884000     1.2307879000    -1.3412738590
   15      H      -2.8388139000     2.1856000000     0.4362700410
   16      C       1.2081430000     0.7915026000    -0.3440730590
   17      C       1.2081430000    -0.7915026000    -0.3440730590
   18      C       0.0000000000     0.0000000000     1.6196214410
   19      C       2.6961826000     1.1433381000     0.1184257410
   20      C       2.6961826000    -1.1433381000     0.1184257410
   21      C       3.4590707000    -0.6920778000    -1.1014267590
   22      C       3.4590707000     0.6920778000    -1.1014267590
   23      C       3.0763550000     0.0000000000     1.0955812410
   24      H      -2.5547628000     0.0000000000     2.0564068410
   25      H      -4.1601901000     0.0000000000     1.2958578410
   26      H      -0.0000000000    -2.1790941000     0.9649555410
   27      H       0.0000000000     2.1790941000     0.9649555410
   28      H       1.0440884000     1.2307879000    -1.3412738590
   29      H       1.0440884000    -1.2307879000    -1.3412738590
   30      H       0.8696055000     0.0000000000     2.2824280410
   31      H      -0.8696055000     0.0000000000     2.2824280410
   32      H       2.8388139000     2.1856000000     0.4362700410
   33      H       2.8388139000    -2.1856000000     0.4362700410
   34      H       3.8362765000    -1.3399853000    -1.9003850590
   35      H       3.8362765000     1.3399853000    -1.9003850590
   36      H       4.1601901000     0.0000000000     1.2958578410
   37      H       2.5547628000     0.0000000000     2.0564068410
 ----------------------------------------------------------------

   12    -655.3325665813      7.34e-09  Convergence criterion met
 Total energy =  -655.33256658
 CCSD total energy          = -657.80335788
        Solving for EOMIP-CCSD A1 transitions.
 EOMIP transition 1/A1
 Total energy = -657.48868994 a.u.  Excitation energy = 8.5626 eV.
 EOMIP transition 2/A1
 Total energy = -657.43188972 a.u.  Excitation energy = 10.1082 eV.
 EOMIP transition 3/A1
 Total energy = -657.39883084 a.u.  Excitation energy = 11.0077 eV.
 EOMIP transition 4/A1
 Total energy = -657.37056536 a.u.  Excitation energy = 11.7769 eV.
 EOMIP-CCSD transition 1/A1
 EOMIP-CCSD transition 2/A1
 EOMIP-CCSD transition 3/A1
 EOMIP-CCSD transition 4/A1
 Excited state properties for  EOMIP-CCSD transition 1/A1
 Excited state properties for  EOMIP-CCSD transition 2/A1
 Excited state properties for  EOMIP-CCSD transition 3/A1
 Excited state properties for  EOMIP-CCSD transition 4/A1
        Solving for EOMIP-CCSD A2 transitions.
 EOMIP transition 1/A2
 Total energy = -657.46343948 a.u.  Excitation energy = 9.2496 eV.
 EOMIP transition 2/A2
 Total energy = -657.41467626 a.u.  Excitation energy = 10.5766 eV.
 EOMIP transition 3/A2
 Total energy = -657.37248120 a.u.  Excitation energy = 11.7248 eV.
 EOMIP-CCSD transition 1/A2
 EOMIP-CCSD transition 2/A2
 EOMIP-CCSD transition 3/A2
 Excited state properties for  EOMIP-CCSD transition 1/A2
 Excited state properties for  EOMIP-CCSD transition 2/A2
 Excited state properties for  EOMIP-CCSD transition 3/A2
        Solving for EOMIP-CCSD B1 transitions.
 EOMIP transition 1/B1
 Total energy = -657.50726630 a.u.  Excitation energy = 8.0571 eV.
 EOMIP transition 2/B1
 Total energy = -657.43094610 a.u.  Excitation energy = 10.1338 eV.
 EOMIP transition 3/B1
 Total energy = -657.40926125 a.u.  Excitation energy = 10.7239 eV.
 EOMIP transition 4/B1
 Total energy = -657.38942749 a.u.  Excitation energy = 11.2636 eV.
 EOMIP-CCSD transition 1/B1
 EOMIP-CCSD transition 2/B1
 EOMIP-CCSD transition 3/B1
 EOMIP-CCSD transition 4/B1
 Excited state properties for  EOMIP-CCSD transition 1/B1
 Excited state properties for  EOMIP-CCSD transition 2/B1
 Excited state properties for  EOMIP-CCSD transition 3/B1
 Excited state properties for  EOMIP-CCSD transition 4/B1
        Solving for EOMIP-CCSD B2 transitions.
 EOMIP transition 1/B2
 Total energy = -657.42528069 a.u.  Excitation energy = 10.2880 eV.
 EOMIP transition 2/B2
 Total energy = -657.40413107 a.u.  Excitation energy = 10.8635 eV.
 EOMIP transition 3/B2
 Total energy = -657.38168909 a.u.  Excitation energy = 11.4742 eV.
 EOMIP transition 4/B2
 Total energy = -657.36298178 a.u.  Excitation energy = 11.9832 eV.
 EOMIP-CCSD transition 1/B2
 EOMIP-CCSD transition 2/B2
 EOMIP-CCSD transition 3/B2
 EOMIP-CCSD transition 4/B2
 Excited state properties for  EOMIP-CCSD transition 1/B2
 Excited state properties for  EOMIP-CCSD transition 2/B2
 Excited state properties for  EOMIP-CCSD transition 3/B2
 Excited state properties for  EOMIP-CCSD transition 4/B2

             Orbital Energies (a.u.) and Symmetries
 --------------------------------------------------------------

 Alpha MOs, Restricted
 -- Occupied --
-11.232 -11.232 -11.232 -11.232 -11.228 -11.228 -11.227 -11.227
  1 B1    1 A1    1 B2    1 A2    2 A1    2 B1    3 B1    3 A1
-11.227 -11.227 -11.226 -11.226 -11.225 -11.225 -11.222 -11.222
  2 B2    2 A2    3 B2    3 A2    4 A1    4 B2    4 B1    5 A1
-11.214  -1.192  -1.166  -1.111  -1.003  -0.971  -0.966  -0.948
  6 A1    7 A1    5 B1    8 A1    5 B2    6 B1    4 A2    9 A1
 -0.942  -0.934  -0.913  -0.784  -0.759  -0.754  -0.744  -0.718
 10 A1    7 B1    6 B2   11 A1    5 A2    8 B1   12 A1    7 B2
 -0.707  -0.694  -0.689  -0.685  -0.651  -0.639  -0.634  -0.576
  8 B2    6 A2   13 A1    9 B1   14 A1   10 B1   15 A1   11 B1
 -0.551  -0.531  -0.527  -0.520  -0.517  -0.511  -0.497  -0.487
 12 B1   16 A1    9 B2    7 A2   13 B1   17 A1   10 B2   18 A1
 -0.485  -0.478  -0.466  -0.461  -0.450  -0.445  -0.437  -0.426
  8 A2   11 B2   14 B1   19 A1   12 B2   15 B1    9 A2   13 B2
 -0.421  -0.419  -0.390  -0.326  -0.310
 16 B1   20 A1   10 A2   21 A1   17 B1

 Beta MOs, Restricted
 -- Occupied --
-11.232 -11.232 -11.232 -11.232 -11.228 -11.228 -11.227 -11.227
  1 B1    1 A1    1 B2    1 A2    2 A1    2 B1    3 B1    3 A1
-11.227 -11.227 -11.226 -11.226 -11.225 -11.225 -11.222 -11.222
  2 B2    2 A2    3 B2    3 A2    4 A1    4 B2    4 B1    5 A1
-11.214  -1.192  -1.166  -1.111  -1.003  -0.971  -0.966  -0.948
  6 A1    7 A1    5 B1    8 A1    5 B2    6 B1    4 A2    9 A1
 -0.942  -0.934  -0.913  -0.784  -0.759  -0.754  -0.744  -0.718
 10 A1    7 B1    6 B2   11 A1    5 A2    8 B1   12 A1    7 B2
 -0.707  -0.694  -0.689  -0.685  -0.651  -0.639  -0.634  -0.576
  8 B2    6 A2   13 A1    9 B1   14 A1   10 B1   15 A1   11 B1
 -0.551  -0.531  -0.527  -0.520  -0.517  -0.511  -0.497  -0.487
 12 B1   16 A1    9 B2    7 A2   13 B1   17 A1   10 B2   18 A1
 -0.485  -0.478  -0.466  -0.461  -0.450  -0.445  -0.437  -0.426
  8 A2   11 B2   14 B1   19 A1   12 B2   15 B1    9 A2   13 B2
 -0.421  -0.419  -0.390  -0.326  -0.310
 16 B1   20 A1   10 A2   21 A1   17 B1

          Ground-State Mulliken Net Atomic Charges

     Atom                 Charge (a.u.)
  ----------------------------------------
      1 C                    -0.071930
      2 C                    -0.026973
      3 C                    -0.026973
      4 H                     0.020583
      5 C                    -0.071930
      6 H                     0.020583
      7 C                    -0.031188
      8 C                     0.088186
      9 H                     0.008189
     10 C                    -0.031188
     11 C                    -0.038895
     12 H                     0.019871
     13 C                    -0.038895
     14 H                     0.019871
     15 H                     0.008189
     16 C                    -0.031188
     17 C                    -0.031188
     18 C                     0.055688
     19 C                    -0.071930
     20 C                    -0.071930
     21 C                    -0.026973
     22 C                    -0.026973
     23 C                     0.088186
     24 H                     0.024981
     25 H                     0.032323
     26 H                     0.003190
     27 H                     0.003190
     28 H                     0.019871
     29 H                     0.019871
     30 H                     0.025265
     31 H                     0.025265
     32 H                     0.008189
     33 H                     0.008189
     34 H                     0.020583
     35 H                     0.020583
     36 H                     0.032323
     37 H                     0.024981
  ----------------------------------------
  Sum of atomic charges =     0.000000

                    Cartesian Multipole Moments
 -----------------------------------------------------------------
    Charge (ESU x 10^10)
                 0.0000
    Dipole Moment (Debye)
         X       0.0000      Y       0.0000      Z       0.0245
       Tot       0.0245
    Quadrupole Moments (Debye-Ang)
        XX    -111.2007     XY      -0.0000     YY     -99.6532
        XZ       0.0000     YZ      -0.0000     ZZ    -102.1443

 Total job time:  7204.44s(wall), 82046.87s(cpu)
        *  Thank you very much for using Q-Chem.  Have a nice day.  *
