 Q-Chem 6.2 (devel), Q-Chem, Inc., Pleasanton, CA (2024)
 Q-Chem 6.2.1 for Intel X86 EM64T Linux

User input:
--------------------------------------------------------------
$molecule
0 1
  C   -2.7066484    0.1195302   -1.1479805
  C   -3.4306474   -1.1086682   -0.7016500
  C   -3.4306474   -1.1086682    0.7016500
  H   -3.7869843   -1.9247700   -1.3411524
  C   -2.7066484    0.1195302    1.1479805
  H   -3.7869843   -1.9247700    1.3411524
  C   -1.2138434   -0.3531764    0.7902200
  C   -3.0892381    1.0908730    0.0000000
  H   -2.8452192    0.4303955    2.1920037
  C   -1.2138434   -0.3531764   -0.7902200
  C   -0.0098143    0.5821955    1.1460598
  H   -1.0435248   -1.3492895    1.2299390
  C   -0.0098143    0.5821955   -1.1460598
  H   -1.0435248   -1.3492895   -1.2299390
  H   -2.8452192    0.4303955   -2.1920037
  C    1.2053991   -0.3346142   -0.7922892
  C    1.2053991   -0.3346142    0.7922892
  C   -0.0178719    1.6176680    0.0000000
  C    2.6850493    0.1198280   -1.1386381
  C    2.6850493    0.1198280    1.1386381
  C    3.4838399   -1.0946154    0.6832800
  C    3.4838399   -1.0946154   -0.6832800
  C    3.0659900    1.1014658    0.0000000
  H   -2.5638386    2.0479656    0.0000000
  H   -4.1730808    1.2933868    0.0000000
  H   -0.0187322    0.9639644    2.1789056
  H   -0.0187322    0.9639644   -2.1789056
  H    1.0467672   -1.3349929   -1.2276010
  H    1.0467672   -1.3349929    1.2276010
  H    0.8662214    2.2607826    0.0000000
  H   -0.8744223    2.2980962    0.0000000
  H    2.8323498    0.4447938   -2.1790187
  H    2.8323498    0.4447938    2.1790187
  H    3.8804338   -1.8753746    1.3404971
  H    3.8804338   -1.8753746   -1.3404971
  H    4.1505476    1.2963620    0.0000000
  H    2.5510919    2.0681593    0.0000000
$end

$rem
   BASIS = cc-pvdz
   GUI  =  2
   MEM_TOTAL  =  300000
   METHOD  =  EOM-CCSD
   SCF_CONVERGENCE  =  8
   IP_STATES = [8,7]
   !CC_DO_DYSON = 1
   CC_TRANS_PROP = 2
   CALC_SOC = 1
$end
--------------------------------------------------------------

             Standard Nuclear Orientation (Angstroms)
    I     Atom           X                Y                Z
 ----------------------------------------------------------------
    1      C      -2.7066483787     0.1195301931    -1.1479805000
    2      C      -3.4306473782    -1.1086682072    -0.7016500000
    3      C      -3.4306473782    -1.1086682072     0.7016500000
    4      H      -3.7869842779    -1.9247700073    -1.3411524000
    5      C      -2.7066483787     0.1195301931     1.1479805000
    6      H      -3.7869842779    -1.9247700073     1.3411524000
    7      C      -1.2138433785    -0.3531764062     0.7902200000
    8      C      -3.0892380791     1.0908729930    -0.0000000000
    9      H      -2.8452191789     0.4303954931     2.1920037000
   10      C      -1.2138433785    -0.3531764062    -0.7902200000
   11      C      -0.0098142789     0.5821954943     1.1460598000
   12      H      -1.0435247781    -1.3492895062     1.2299390000
   13      C      -0.0098142789     0.5821954943    -1.1460598000
   14      H      -1.0435247781    -1.3492895062    -1.2299390000
   15      H      -2.8452191789     0.4303954931    -2.1920037000
   16      C       1.2053991215    -0.3346142052    -0.7922892000
   17      C       1.2053991215    -0.3346142052     0.7922892000
   18      C      -0.0178718794     1.6176679943    -0.0000000000
   19      C       2.6850493213     0.1198279954    -1.1386381000
   20      C       2.6850493213     0.1198279954     1.1386381000
   21      C       3.4838399218    -1.0946154043     0.6832800000
   22      C       3.4838399218    -1.0946154043    -0.6832800000
   23      C       3.0659900209     1.1014657955    -0.0000000000
   24      H      -2.5638385795     2.0479655932    -0.0000000000
   25      H      -4.1730807792     1.2933867925    -0.0000000000
   26      H      -0.0187321791     0.9639643943     2.1789056000
   27      H      -0.0187321791     0.9639643943    -2.1789056000
   28      H       1.0467672219    -1.3349929053    -1.2276010000
   29      H       1.0467672219    -1.3349929053     1.2276010000
   30      H       0.8662214204     2.2607825946    -0.0000000000
   31      H      -0.8744222796     2.2980961939    -0.0000000000
   32      H       2.8323498211     0.4447937954    -2.1790187000
   33      H       2.8323498211     0.4447937954     2.1790187000
   34      H       3.8804338221    -1.8753746041     1.3404971000
   35      H       3.8804338221    -1.8753746041    -1.3404971000
   36      H       4.1505476208     1.2963619960    -0.0000000000
   37      H       2.5510919205     2.0681592953    -0.0000000000
 ----------------------------------------------------------------

   12    -655.3304046091      8.59e-09  Convergence criterion met
 Total energy =  -655.33040461
 CCSD total energy          = -657.80145118
        Solving for EOMIP-CCSD A' transitions.
 EOMIP transition 1/A'
 Total energy = -657.50741069 a.u.  Excitation energy = 8.0012 eV.
 EOMIP transition 2/A'
 Total energy = -657.48524074 a.u.  Excitation energy = 8.6045 eV.
 EOMIP transition 3/A'
 Total energy = -657.43027280 a.u.  Excitation energy = 10.1003 eV.
 EOMIP transition 4/A'
 Total energy = -657.42870263 a.u.  Excitation energy = 10.1430 eV.
 EOMIP transition 5/A'
 Total energy = -657.40726433 a.u.  Excitation energy = 10.7264 eV.
 EOMIP transition 6/A'
 Total energy = -657.39736992 a.u.  Excitation energy = 10.9956 eV.
 EOMIP transition 7/A'
 Total energy = -657.38726752 a.u.  Excitation energy = 11.2705 eV.
 EOMIP transition 8/A'
 Total energy = -657.36878748 a.u.  Excitation energy = 11.7734 eV.
 EOMIP-CCSD transition 1/A'
 EOMIP-CCSD transition 2/A'
 EOMIP-CCSD transition 3/A'
 EOMIP-CCSD transition 4/A'
 EOMIP-CCSD transition 5/A'
 EOMIP-CCSD transition 6/A'
 EOMIP-CCSD transition 7/A'
 EOMIP-CCSD transition 8/A'
 Excited state properties for  EOMIP-CCSD transition 1/A'
 Excited state properties for  EOMIP-CCSD transition 2/A'
 Excited state properties for  EOMIP-CCSD transition 3/A'
 Excited state properties for  EOMIP-CCSD transition 4/A'
 Excited state properties for  EOMIP-CCSD transition 5/A'
 Excited state properties for  EOMIP-CCSD transition 6/A'
 Excited state properties for  EOMIP-CCSD transition 7/A'
 Excited state properties for  EOMIP-CCSD transition 8/A'
        Solving for EOMIP-CCSD A" transitions.
 EOMIP transition 1/A"
 Total energy = -657.46145526 a.u.  Excitation energy = 9.2518 eV.
 EOMIP transition 2/A"
 Total energy = -657.42399425 a.u.  Excitation energy = 10.2711 eV.
 EOMIP transition 3/A"
 Total energy = -657.41260575 a.u.  Excitation energy = 10.5810 eV.
 EOMIP transition 4/A"
 Total energy = -657.40192491 a.u.  Excitation energy = 10.8717 eV.
 EOMIP transition 5/A"
 Total energy = -657.38007736 a.u.  Excitation energy = 11.4662 eV.
 EOMIP transition 6/A"
 Total energy = -657.37053130 a.u.  Excitation energy = 11.7259 eV.
 EOMIP transition 7/A"
 Total energy = -657.36127401 a.u.  Excitation energy = 11.9778 eV.
 EOMIP-CCSD transition 1/A"
 EOMIP-CCSD transition 2/A"
 EOMIP-CCSD transition 3/A"
 EOMIP-CCSD transition 4/A"
 EOMIP-CCSD transition 5/A"
 EOMIP-CCSD transition 6/A"
 EOMIP-CCSD transition 7/A"
 Excited state properties for  EOMIP-CCSD transition 1/A"
 Excited state properties for  EOMIP-CCSD transition 2/A"
 Excited state properties for  EOMIP-CCSD transition 3/A"
 Excited state properties for  EOMIP-CCSD transition 4/A"
 Excited state properties for  EOMIP-CCSD transition 5/A"
 Excited state properties for  EOMIP-CCSD transition 6/A"
 Excited state properties for  EOMIP-CCSD transition 7/A"

             Orbital Energies (a.u.) and Symmetries
 --------------------------------------------------------------

 Alpha MOs, Restricted
 -- Occupied --
-11.232 -11.232 -11.232 -11.232 -11.228 -11.228 -11.228 -11.227
  1 A'    1 A"    2 A'    2 A"    3 A'    3 A"    4 A'    5 A'
-11.227 -11.227 -11.226 -11.226 -11.225 -11.225 -11.223 -11.221
  6 A'    4 A"    5 A"    6 A"    7 A'    7 A"    8 A'    9 A'
-11.214  -1.192  -1.166  -1.111  -1.003  -0.972  -0.966  -0.948
 10 A'   11 A'   12 A'   13 A'    8 A"   14 A'    9 A"   15 A'
 -0.942  -0.934  -0.913  -0.784  -0.759  -0.754  -0.744  -0.718
 16 A'   17 A'   10 A"   18 A'   11 A"   19 A'   20 A'   12 A"
 -0.708  -0.694  -0.689  -0.685  -0.650  -0.639  -0.634  -0.576
 13 A"   14 A"   21 A'   22 A'   23 A'   24 A'   25 A'   26 A'
 -0.552  -0.532  -0.528  -0.520  -0.517  -0.511  -0.497  -0.487
 27 A'   28 A'   15 A"   16 A"   29 A'   30 A'   17 A"   31 A'
 -0.485  -0.477  -0.466  -0.460  -0.451  -0.446  -0.437  -0.425
 18 A"   19 A"   32 A'   33 A'   20 A"   34 A'   21 A"   22 A"
 -0.421  -0.418  -0.390  -0.328  -0.307
 35 A'   36 A'   23 A"   37 A'   38 A'

 Beta MOs, Restricted
 -- Occupied --
-11.232 -11.232 -11.232 -11.232 -11.228 -11.228 -11.228 -11.227
  1 A'    1 A"    2 A'    2 A"    3 A'    3 A"    4 A'    5 A'
-11.227 -11.227 -11.226 -11.226 -11.225 -11.225 -11.223 -11.221
  6 A'    4 A"    5 A"    6 A"    7 A'    7 A"    8 A'    9 A'
-11.214  -1.192  -1.166  -1.111  -1.003  -0.972  -0.966  -0.948
 10 A'   11 A'   12 A'   13 A'    8 A"   14 A'    9 A"   15 A'
 -0.942  -0.934  -0.913  -0.784  -0.759  -0.754  -0.744  -0.718
 16 A'   17 A'   10 A"   18 A'   11 A"   19 A'   20 A'   12 A"
 -0.708  -0.694  -0.689  -0.685  -0.650  -0.639  -0.634  -0.576
 13 A"   14 A"   21 A'   22 A'   23 A'   24 A'   25 A'   26 A'
 -0.552  -0.532  -0.528  -0.520  -0.517  -0.511  -0.497  -0.487
 27 A'   28 A'   15 A"   16 A"   29 A'   30 A'   17 A"   31 A'
 -0.485  -0.477  -0.466  -0.460  -0.451  -0.446  -0.437  -0.425
 18 A"   19 A"   32 A'   33 A'   20 A"   34 A'   21 A"   22 A"
 -0.421  -0.418  -0.390  -0.328  -0.307
 35 A'   36 A'   23 A"   37 A'   38 A'

          Ground-State Mulliken Net Atomic Charges

     Atom                 Charge (a.u.)
  ----------------------------------------
      1 C                    -0.069459
      2 C                    -0.032430
      3 C                    -0.032430
      4 H                     0.021396
      5 C                    -0.069459
      6 H                     0.021396
      7 C                    -0.035828
      8 C                     0.095279
      9 H                     0.009647
     10 C                    -0.035828
     11 C                    -0.038944
     12 H                     0.021176
     13 C                    -0.038944
     14 H                     0.021176
     15 H                     0.009647
     16 C                    -0.026453
     17 C                    -0.026453
     18 C                     0.055263
     19 C                    -0.073758
     20 C                    -0.073758
     21 C                    -0.022716
     22 C                    -0.022716
     23 C                     0.080660
     24 H                     0.025205
     25 H                     0.033054
     26 H                     0.003071
     27 H                     0.003071
     28 H                     0.018723
     29 H                     0.018723
     30 H                     0.024899
     31 H                     0.025819
     32 H                     0.006969
     33 H                     0.006969
     34 H                     0.019976
     35 H                     0.019976
     36 H                     0.031912
     37 H                     0.025170
  ----------------------------------------
  Sum of atomic charges =     0.000000

                    Cartesian Multipole Moments
 -----------------------------------------------------------------
    Charge (ESU x 10^10)
                -0.0000
    Dipole Moment (Debye)
         X       0.0768      Y       0.0278      Z       0.0000
       Tot       0.0816
    Quadrupole Moments (Debye-Ang)
        XX    -111.1871     XY      -0.3828     YY    -102.1575
        XZ      -0.0000     YZ       0.0000     ZZ     -99.6570

 Total job time:  7718.25s(wall), 116463.78s(cpu)
        *  Thank you very much for using Q-Chem.  Have a nice day.  *
